 Gaussian 09, Revision C.01,
 Gaussian 09:  EM64L-G09RevC.01 23-Sep-2011

 ----------------------------------------
 # opt freq b3lyp/6-31* geom=connectivity
 ----------------------------------------

 99/9=1/99;
 -------------------
 Title Card Required
 -------------------
 Charge =  0 Multiplicity = 1

 SCF Done:  E(RB3LYP) =  -233.384822068     A.U. after   13 cycles
 SCF Done:  E(RB3LYP) =  -233.397773146     A.U. after   11 cycles
 SCF Done:  E(RB3LYP) =  -233.398532368     A.U. after   10 cycles
 SCF Done:  E(RB3LYP) =  -233.398546815     A.U. after    8 cycles
 SCF Done:  E(RB3LYP) =  -233.398547559     A.U. after    7 cycles
 Optimization completed.
    -- Stationary point found.
 Normal termination of Gaussian 09 at Tue Mar  2 12:07:30 2021.

 --------------------------------------------------------------------
 #N Geom=AllCheck Guess=TCheck SCRF=Check GenChk RB3LYP/6-31G(d) Freq
 --------------------------------------------------------------------

 Structure from the checkpoint file:  hexa1.chk
 -------------------
 Title Card Required
 -------------------
 Charge =  0 Multiplicity = 1

                         Standard orientation:
 ---------------------------------------------------------------------
 Center     Atomic      Atomic             Coordinates (Angstroms)
 Number     Number       Type             X           Y           Z
 ---------------------------------------------------------------------
      1          6           0       -1.200962    2.837034    0.000000
      2          1           0       -0.275515    3.408754    0.000000
      3          1           0       -2.125456    3.406091    0.000000
      4          6           0       -1.197383    1.493964    0.000000
      5          1           0       -2.148143    0.959767    0.000000
      6          6           0        0.000000    0.676105    0.000000
      7          1           0        0.954436    1.204730    0.000000
      8          6           0       -0.000080   -0.676149    0.000000
      9          1           0       -0.954500   -1.204797    0.000000
     10          6           0        1.197351   -1.493948    0.000000
     11          1           0        2.148067   -0.959672    0.000000
     12          6           0        1.201048   -2.837016    0.000000
     13          1           0        0.275664   -3.408836    0.000000
     14          1           0        2.125603   -3.405977    0.000000
 ---------------------------------------------------------------------

 SCF Done:  E(RB3LYP) =  -233.398547559     A.U. after    1 cycles

 The electronic state is 1-A'.
 Alpha  occ. eigenvalues --  -10.19336 -10.19332 -10.19278 -10.19206 -10.18406
 Alpha  occ. eigenvalues --  -10.18406  -0.81676  -0.77584  -0.71720  -0.61903
 Alpha  occ. eigenvalues --   -0.55720  -0.55312  -0.48262  -0.45761  -0.42841
 Alpha  occ. eigenvalues --   -0.40308  -0.37952  -0.36115  -0.34450  -0.33753
 Alpha  occ. eigenvalues --   -0.28591  -0.20924
 Alpha virt. eigenvalues --   -0.04436   0.04760   0.10068   0.10229   0.12385
 Alpha virt. eigenvalues --    0.13063   0.14325   0.16378   0.18673   0.18731
 Alpha virt. eigenvalues --    0.21033   0.31116   0.33529   0.35103   0.37419

 Mulliken atomic charges:
              1
     1  C   -0.355232
     2  H    0.141246
     3  H    0.144707
     4  C   -0.060003
     5  H    0.126804
     6  C   -0.121726
     7  H    0.124203
     8  C   -0.121717
     9  H    0.124204
    10  C   -0.060007
    11  H    0.126802
    12  C   -0.355235
    13  H    0.141246
    14  H    0.144706
 Sum of Mulliken atomic charges =   0.00000

 Dipole moment (field-independent basis, Debye):
    X=             -0.0001    Y=              0.0001    Z=              0.0000  Tot=              0.0001
 Quadrupole moment (field-independent basis, Debye-Ang):
   XX=            -33.2343   YY=            -33.6502   ZZ=            -40.8286
   XY=              0.2145   XZ=              0.0000   YZ=              0.0000

  Exact polarizability:  66.535 -31.115 145.499   0.000   0.000  22.373
 Approx polarizability:  90.438 -46.478 251.511   0.000   0.000  32.121

                     1                      2                      3
                    A"                     A'                     A"
 Frequencies --   100.5446               147.4003               227.1710
 Red. masses --     3.3368                 2.9673                 2.8269
 Frc consts  --     0.0199                 0.0380                 0.0860
 IR Inten    --     0.2456                 1.9848                 0.0000

                     4                      5                      6
                    A"                     A'                     A'
 Frequencies --   255.6277               351.0588               445.5330
 Red. masses --     1.6297                 2.4975                 4.2740
 Frc consts  --     0.0627                 0.1813                 0.4999
 IR Inten    --     1.2660                 0.0000                 0.0000

                     7                      8                      9
                    A'                     A"                     A"
 Frequencies --   542.5211               618.1849               710.7729
 Red. masses --     2.4964                 1.1700                 1.6253
 Frc consts  --     0.4329                 0.2634                 0.4838
 IR Inten    --     5.7080                 0.0000                 8.0065

                    10                     11                     12
                    A"                     A"                     A"
 Frequencies --   898.5941               920.2715               924.4692
 Red. masses --     1.7730                 1.3457                 1.5146
 Frc consts  --     0.8435                 0.6715                 0.7627
 IR Inten    --     0.0000                75.8877                 0.0000

                    13                     14                     15
                    A'                     A"                     A'
 Frequencies --   953.9848               974.7366               987.1150
 Red. masses --     1.4433                 1.1688                 1.5623
 Frc consts  --     0.7739                 0.6543                 0.8969
 IR Inten    --     0.0000                 3.9844                 2.8164

                    16                     17                     18
                    A"                     A"                     A'
 Frequencies --  1030.8757              1064.4392              1169.9216
 Red. masses --     1.1079                 1.0907                 2.2419
 Frc consts  --     0.6937                 0.7281                 1.8080
 IR Inten    --     0.0000                50.1797                 5.6851

                    19                     20                     21
                    A'                     A'                     A'
 Frequencies --  1232.3102              1296.7709              1328.1114
 Red. masses --     1.8960                 1.3059                 1.5546
 Frc consts  --     1.6964                 1.2939                 1.6156
 IR Inten    --     0.0000                 2.7550                 0.0000

                    22                     23                     24
                    A'                     A'                     A'
 Frequencies --  1339.6872              1343.8698              1454.9793
 Red. masses --     1.2911                 1.3146                 1.2922
 Frc consts  --     1.3652                 1.3988                 1.6117
 IR Inten    --     3.4873                 0.0000                 0.0000

                    25                     26                     27
                    A'                     A'                     A'
 Frequencies --  1488.1104              1657.6557              1709.0923
 Red. masses --     1.2432                 3.7385                 4.1512
 Frc consts  --     1.6220                 6.0525                 7.1443
 IR Inten    --     2.0609                 0.0000                16.4476

                    28                     29                     30
                    A'                     A'                     A'
 Frequencies --  1712.0768              3143.4047              3144.4243
 Red. masses --     4.6133                 1.0849                 1.0899
 Frc consts  --     7.9672                 6.3157                 6.3492
 IR Inten    --     0.0000                 0.1252                 0.0000

                    31                     32                     33
                    A'                     A'                     A'
 Frequencies --  3151.8321              3157.7600              3165.1734
 Red. masses --     1.0850                 1.0846                 1.0653
 Frc consts  --     6.3504                 6.3723                 6.2878
 IR Inten    --     0.0000                63.1499                12.1804

                    34                     35                     36
                    A'                     A'                     A'
 Frequencies --  3165.4026              3248.6311              3248.6511
 Red. masses --     1.0660                 1.1156                 1.1156
 Frc consts  --     6.2929                 6.9367                 6.9369
 IR Inten    --     0.0002                 0.5590                31.1480

 - Thermochemistry -
 -------------------
 Temperature   298.150 Kelvin.  Pressure   1.00000 Atm.
 Atom     1 has atomic number  6 and mass  12.00000

 Molecular mass:    80.06260 amu.
 Principal axes and moments of inertia in atomic units:
                           1         2         3
     Eigenvalues --    67.711801356.132281423.84407
           X           -0.44192   0.89705   0.00000
           Y            0.89705   0.44192   0.00000
           Z            0.00000   0.00000   1.00000
 This molecule is an asymmetric top.
 Rotational symmetry number  1.
 Rotational temperatures (Kelvin)      1.27915     0.06387     0.06083
 Rotational constants (GHZ):          26.65328     1.33080     1.26751
 Zero-point vibrational energy     312890.2 (Joules/Mol)
                                   74.78256 (Kcal/Mol)
 Warning -- explicit consideration of   8 degrees of freedom as
           vibrations may cause significant error
 Vibrational temperatures:    144.66   212.08   326.85   367.79   505.09
          (Kelvin)            641.02   780.57   889.43  1022.64  1292.87
                             1324.06  1330.10  1372.57  1402.43  1420.24
                             1483.20  1531.49  1683.25  1773.02  1865.76
                             1910.85  1927.51  1933.53  2093.39  2141.06
                             2384.99  2459.00  2463.29  4522.65  4524.12
                             4534.78  4543.31  4553.97  4554.30  4674.05
                             4674.08

 Zero-point correction=                           0.119174 (Hartree/Particle)
 Thermal correction to Energy=                    0.125896
 Thermal correction to Enthalpy=                  0.126840
 Thermal correction to Gibbs Free Energy=         0.089067
 Sum of electronic and zero-point Energies=           -233.279374
 Sum of electronic and thermal Energies=              -233.272651
 Sum of electronic and thermal Enthalpies=            -233.271707
 Sum of electronic and thermal Free Energies=         -233.309481

                     E (Thermal)             CV                S
                      KCal/Mol        Cal/Mol-Kelvin    Cal/Mol-Kelvin
 Total                   79.001             23.829             79.501
 Electronic               0.000              0.000              0.000
 Translational            0.889              2.981             39.055
 Rotational               0.889              2.981             26.372
 Vibrational             77.224             17.868             14.074
 Vibration     1          0.604              1.949              3.444
 Vibration     2          0.617              1.905              2.706
 Vibration     3          0.651              1.800              1.901
 Vibration     4          0.666              1.753              1.691
 Vibration     5          0.728              1.573              1.161
 Vibration     6          0.805              1.371              0.809
 Vibration     7          0.898              1.156              0.560
 Vibration     8          0.978              0.993              0.419

 Optimization completed.
    -- Stationary point found.
 Normal termination of Gaussian 09 at Tue Mar  2 12:08:29 2021.
