 Gaussian 09, Revision C.01,
 Gaussian 09:  EM64L-G09RevC.01 23-Sep-2011

 -----------------------------------------
 # opt freq b3lyp/6-31g* geom=connectivity
 -----------------------------------------

 99/9=1/99;
 -------------------
 Title Card Required
 -------------------
 Charge =  0 Multiplicity = 1

 SCF Done:  E(RB3LYP) =  -310.784987290     A.U. after   14 cycles
 SCF Done:  E(RB3LYP) =  -310.803701176     A.U. after   15 cycles
 SCF Done:  E(RB3LYP) =  -310.805633960     A.U. after   11 cycles
 SCF Done:  E(RB3LYP) =  -310.805656498     A.U. after    8 cycles
 SCF Done:  E(RB3LYP) =  -310.805657473     A.U. after    7 cycles
 Optimization completed.
    -- Stationary point found.
 Normal termination of Gaussian 09 at Tue Mar  2 11:51:50 2021.

 --------------------------------------------------------------------
 #N Geom=AllCheck Guess=TCheck SCRF=Check GenChk RB3LYP/6-31G(d) Freq
 --------------------------------------------------------------------

 Structure from the checkpoint file:  octa1.chk
 -------------------
 Title Card Required
 -------------------
 Charge =  0 Multiplicity = 1

                         Standard orientation:
 ---------------------------------------------------------------------
 Center     Atomic      Atomic             Coordinates (Angstroms)
 Number     Number       Type             X           Y           Z
 ---------------------------------------------------------------------
      1          6           0       -2.215854    3.702097    0.000000
      2          1           0       -3.211795    3.264757    0.000000
      3          1           0       -2.159094    4.786140    0.000000
      4          6           0       -1.111548    2.935924    0.000000
      5          1           0       -0.132362    3.416241    0.000000
      6          6           0       -1.117178    1.488170    0.000000
      7          1           0       -2.092987    1.000429    0.000000
      8          6           0        0.000209    0.720503    0.000000
      9          1           0        0.974046    1.212577    0.000000
     10          6           0        0.000000   -0.720365    0.000000
     11          1           0       -0.973861   -1.212402    0.000000
     12          6           0        1.117323   -1.488124    0.000000
     13          1           0        2.093192   -1.000509    0.000000
     14          6           0        1.111476   -2.935888    0.000000
     15          1           0        0.132198   -3.416022    0.000000
     16          6           0        2.215631   -3.702275    0.000000
     17          1           0        3.211667   -3.265151    0.000000
     18          1           0        2.158640   -4.786308    0.000000
 ---------------------------------------------------------------------

 SCF Done:  E(RB3LYP) =  -310.805657473     A.U. after    1 cycles

 The electronic state is 1-A'.
 Alpha  occ. eigenvalues --  -10.19394 -10.19363 -10.19345 -10.19342 -10.19264
 Alpha  occ. eigenvalues --  -10.19260 -10.18411 -10.18410  -0.82350  -0.79761
 Alpha  occ. eigenvalues --   -0.75852  -0.70974  -0.62900  -0.57005  -0.56144
 Alpha  occ. eigenvalues --   -0.54704  -0.48107  -0.47084  -0.44543  -0.42106
 Alpha  occ. eigenvalues --   -0.39862  -0.38372  -0.36940  -0.35386  -0.34540
 Alpha  occ. eigenvalues --   -0.34510  -0.31265  -0.26198  -0.19702
 Alpha virt. eigenvalues --   -0.05768   0.01875   0.07948   0.09362   0.10725
 Alpha virt. eigenvalues --    0.12368   0.12642   0.12792   0.15296   0.15555
 Alpha virt. eigenvalues --    0.17107   0.19312   0.19919   0.20190   0.28701

 Mulliken atomic charges:
              1
     1  C   -0.355969
     2  H    0.141209
     3  H    0.144715
     4  C   -0.060041
     5  H    0.126491
     6  C   -0.122394
     7  H    0.123948
     8  C   -0.122487
     9  H    0.124542
    10  C   -0.122503
    11  H    0.124539
    12  C   -0.122384
    13  H    0.123948
    14  C   -0.060047
    15  H    0.126488
    16  C   -0.355973
    17  H    0.141207
    18  H    0.144713
 Sum of Mulliken atomic charges =   0.00000

 Dipole moment (field-independent basis, Debye):
    X=             -0.0001    Y=              0.0002    Z=              0.0000  Tot=              0.0002
 Quadrupole moment (field-independent basis, Debye-Ang):
   XX=            -43.9730   YY=            -44.4151   ZZ=            -53.7200
   XY=              0.4787   XZ=              0.0000   YZ=              0.0000

  Exact polarizability: 134.050 -90.515 207.153   0.000   0.000  29.198
 Approx polarizability: 236.228-168.848 322.624   0.000   0.000  42.650

                     1                      2                      3
                    A"                     A'                     A"
 Frequencies --    62.6682                86.7446               157.4440
 Red. masses --     4.0124                 3.5901                 3.3756
 Frc consts  --     0.0093                 0.0159                 0.0493
 IR Inten    --     0.1630                 1.4300                 0.0000

                     4                      5                      6
                    A"                     A'                     A"
 Frequencies --   176.9464               223.1707               260.6365
 Red. masses --     1.6783                 3.0308                 2.6772
 Frc consts  --     0.0310                 0.0889                 0.1072
 IR Inten    --     0.4537                 0.0000                 0.3928

                     7                      8                      9
                    A'                     A"                     A'
 Frequencies --   342.3178               352.0867               391.3662
 Red. masses --     4.9104                 1.9270                 2.6117
 Frc consts  --     0.3390                 0.1407                 0.2357
 IR Inten    --     0.0000                 0.0000                 6.3136

                    10                     11                     12
                    A'                     A'                     A"
 Frequencies --   542.1165               573.2879               645.6769
 Red. masses --     2.6340                 3.5151                 1.2457
 Frc consts  --     0.4561                 0.6807                 0.3060
 IR Inten    --     0.0000                 6.2655                 7.2644

                    13                     14                     15
                    A"                     A"                     A"
 Frequencies --   682.5987               872.4216               909.1975
 Red. masses --     1.5368                 1.7330                 1.6460
 Frc consts  --     0.4219                 0.7771                 0.8016
 IR Inten    --     0.0000                 3.6389                 0.0000

                    16                     17                     18
                    A"                     A"                     A'
 Frequencies --   918.3137               921.9921               959.2292
 Red. masses --     1.3954                 1.6813                 1.5736
 Frc consts  --     0.6933                 0.8421                 0.8531
 IR Inten    --    74.9479                 0.0000                 1.2909

                    19                     20                     21
                    A"                     A'                     A"
 Frequencies --   959.5188               979.2784              1000.7295
 Red. masses --     1.1660                 1.4320                 1.1206
 Frc consts  --     0.6325                 0.8091                 0.6612
 IR Inten    --     0.0000                 0.0000                 2.9414

                    22                     23                     24
                    A"                     A"                     A'
 Frequencies --  1043.3406              1063.6000              1174.7650
 Red. masses --     1.0976                 1.0901                 1.7312
 Frc consts  --     0.7039                 0.7266                 1.4077
 IR Inten    --     0.0000                75.5623                14.7781

                    25                     26                     27
                    A'                     A'                     A'
 Frequencies --  1181.5091              1226.1730              1272.0773
 Red. masses --     3.5902                 1.8158                 1.3320
 Frc consts  --     2.9528                 1.6085                 1.2699
 IR Inten    --     0.0000                 0.0000                 8.9667

                    28                     29                     30
                    A'                     A'                     A'
 Frequencies --  1322.1598              1329.2722              1333.8484
 Red. masses --     1.4171                 1.3753                 1.6308
 Frc consts  --     1.4596                 1.4318                 1.7095
 IR Inten    --     0.0000                 5.6868                 0.0000

                    31                     32                     33
                    A'                     A'                     A'
 Frequencies --  1346.4360              1352.9889              1462.9102
 Red. masses --     1.3009                 1.3225                 1.2915
 Frc consts  --     1.3895                 1.4263                 1.6285
 IR Inten    --     0.6307                 0.0000                 1.0384

                    34                     35                     36
                    A'                     A'                     A'
 Frequencies --  1484.5239              1642.0435              1687.1280
 Red. masses --     1.2760                 3.9523                 4.5904
 Frc consts  --     1.6568                 6.2787                 7.6983
 IR Inten    --     0.0000                 6.1388                 0.0000

                    37                     38                     39
                    A'                     A'                     A'
 Frequencies --  1691.3482              1714.5443              3141.7466
 Red. masses --     3.8921                 4.5297                 1.0874
 Frc consts  --     6.5600                 7.8454                 6.3236
 IR Inten    --     0.0000                15.1499                 0.0001

                    40                     41                     42
                    A'                     A'                     A'
 Frequencies --  3143.5297              3145.8852              3148.3636
 Red. masses --     1.0885                 1.0880                 1.0871
 Frc consts  --     6.3376                 6.3438                 6.3489
 IR Inten    --     3.3076                 0.0002                 0.4859

                    43                     44                     45
                    A'                     A'                     A'
 Frequencies --  3154.7955              3158.1560              3166.1565
 Red. masses --     1.0860                 1.0853                 1.0642
 Frc consts  --     6.3682                 6.3776                 6.2852
 IR Inten    --     0.0000                97.0388                15.8206

                    46                     47                     48
                    A'                     A'                     A'
 Frequencies --  3166.2063              3249.7764              3249.7905
 Red. masses --     1.0646                 1.1157                 1.1157
 Frc consts  --     6.2880                 6.9421                 6.9422
 IR Inten    --     0.0019                 3.8604                27.6007

 - Thermochemistry -
 -------------------
 Temperature   298.150 Kelvin.  Pressure   1.00000 Atm.
 Atom     1 has atomic number  6 and mass  12.00000

 Molecular mass:   106.07825 amu.
 Principal axes and moments of inertia in atomic units:
                           1         2         3
     Eigenvalues --    91.820713179.238593271.05930
           X           -0.47210   0.88155   0.00000
           Y            0.88155   0.47210   0.00000
           Z            0.00000   0.00000   1.00000
 This molecule is an asymmetric top.
 Rotational symmetry number  1.
 Rotational temperatures (Kelvin)      0.94329     0.02724     0.02648
 Rotational constants (GHZ):          19.65506     0.56766     0.55173
 Zero-point vibrational energy     401172.6 (Joules/Mol)
                                   95.88255 (Kcal/Mol)
 Warning -- explicit consideration of  11 degrees of freedom as
           vibrations may cause significant error
 Vibrational temperatures:     90.17   124.81   226.53   254.59   321.09
          (Kelvin)            375.00   492.52   506.57   563.09   779.98
                              824.83   928.98   982.11  1255.22  1308.13
                             1321.25  1326.54  1380.12  1380.53  1408.96
                             1439.82  1501.13  1530.28  1690.22  1699.93
                             1764.19  1830.23  1902.29  1912.52  1919.11
                             1937.22  1946.65  2104.80  2135.90  2362.53
                             2427.40  2433.47  2466.84  4520.27  4522.83
                             4526.22  4529.79  4539.04  4543.88  4555.39
                             4555.46  4675.70  4675.72

 Zero-point correction=                           0.152799 (Hartree/Particle)
 Thermal correction to Energy=                    0.161666
 Thermal correction to Enthalpy=                  0.162610
 Thermal correction to Gibbs Free Energy=         0.119168
 Sum of electronic and zero-point Energies=           -310.652859
 Sum of electronic and thermal Energies=              -310.643992
 Sum of electronic and thermal Enthalpies=            -310.643048
 Sum of electronic and thermal Free Energies=         -310.686489

                     E (Thermal)             CV                S
                      KCal/Mol        Cal/Mol-Kelvin    Cal/Mol-Kelvin
 Total                  101.447             31.912             91.431
 Electronic               0.000              0.000              0.000
 Translational            0.889              2.981             39.894
 Rotational               0.889              2.981             28.348
 Vibrational             99.669             25.951             23.189
 Vibration     1          0.597              1.972              4.371
 Vibration     2          0.601              1.958              3.732
 Vibration     3          0.621              1.894              2.580
 Vibration     4          0.628              1.871              2.360
 Vibration     5          0.649              1.806              1.933
 Vibration     6          0.669              1.745              1.658
 Vibration     7          0.721              1.591              1.201
 Vibration     8          0.729              1.571              1.157
 Vibration     9          0.759              1.489              0.995
 Vibration    10          0.897              1.157              0.561
 Vibration    11          0.930              1.089              0.498

 Optimization completed.
    -- Stationary point found.
 Normal termination of Gaussian 09 at Tue Mar  2 11:54:06 2021.
